[Molden Format]
[Title]
tblite version 0.6.0
[Cell] AU
   9.6952377591174894E+00   0.0000000000000000E+00   0.0000000000000000E+00
   0.0000000000000000E+00   9.6952377591174894E+00   0.0000000000000000E+00
   0.0000000000000000E+00   0.0000000000000000E+00   9.6952377591174894E+00
[Atoms] AU
N      1      5   1.9742062109956000E+00   1.9741549778324099E+00   1.9742459697430399E+00
N      2      5   6.8218242765939499E+00   2.8734638348099502E+00   7.7209951756008897E+00
N      3      5   7.7210495718120100E+00   6.8217705152177297E+00   2.8733656131801601E+00
N      4      5   2.8734322066078102E+00   7.7210889782838601E+00   6.8218709317187800E+00
H      5      1   3.5186327210028598E+00   2.6386533348454799E+00   1.0065297998128599E+00
H      6      1   2.6387759496475400E+00   1.0064731388559400E+00   3.5188274808644699E+00
H      7      1   1.0063972856318899E+00   3.5185045445084500E+00   2.6386920259238700E+00
H      8      1   8.3662497598269692E+00   2.2089671101722899E+00   8.6887095568101795E+00
H      9      1   7.4863968455825898E+00   3.8411471591795601E+00   6.1764098257372497E+00
H     10      1   5.8540167516771504E+00   1.3291156988879700E+00   7.0565460669603102E+00
H     11      1   7.0564629993899004E+00   5.8540959028227402E+00   1.3287992386481300E+00
H     12      1   8.6888263385358204E+00   8.3661154112978497E+00   2.2089412066220699E+00
H     13      1   3.8412122322691200E+00   6.1767366989299797E+00   7.4862972364948002E+00
H     14      1   1.3289785426212699E+00   7.0565860409992602E+00   5.8541403136809604E+00
H     15      1   2.2088489606988500E+00   8.6887582098579905E+00   8.3664356842338705E+00
H     16      1   6.1765914200465204E+00   7.4862705164384797E+00   3.8410959469083501E+00
[GTO]
     1 0
s      4     1.00
   6.3594024466941008E+01  -1.9234388414721629E-01
   1.0951417231523665E+01  -2.3478107924953728E-01
   8.7999310257376984E-01   3.7593753901700888E-01
   3.3538715296521110E-01   1.4982889271862770E-01
p      4     1.00
   7.2965040481495080E+00   9.7658666315667420E-01
   1.8918745450712575E+00   9.0372226730345739E-01
   6.6694432110824120E-01   4.7404958461536373E-01
   2.6552202674130870E-01   7.1516067715011844E-02

     2 0
s      4     1.00
   6.3594024466941008E+01  -1.9234388414721629E-01
   1.0951417231523665E+01  -2.3478107924953728E-01
   8.7999310257376984E-01   3.7593753901700888E-01
   3.3538715296521110E-01   1.4982889271862770E-01
p      4     1.00
   7.2965040481495080E+00   9.7658666315667420E-01
   1.8918745450712575E+00   9.0372226730345739E-01
   6.6694432110824120E-01   4.7404958461536373E-01
   2.6552202674130870E-01   7.1516067715011844E-02

     3 0
s      4     1.00
   6.3594024466941008E+01  -1.9234388414721629E-01
   1.0951417231523665E+01  -2.3478107924953728E-01
   8.7999310257376984E-01   3.7593753901700888E-01
   3.3538715296521110E-01   1.4982889271862770E-01
p      4     1.00
   7.2965040481495080E+00   9.7658666315667420E-01
   1.8918745450712575E+00   9.0372226730345739E-01
   6.6694432110824120E-01   4.7404958461536373E-01
   2.6552202674130870E-01   7.1516067715011844E-02

     4 0
s      4     1.00
   6.3594024466941008E+01  -1.9234388414721629E-01
   1.0951417231523665E+01  -2.3478107924953728E-01
   8.7999310257376984E-01   3.7593753901700888E-01
   3.3538715296521110E-01   1.4982889271862770E-01
p      4     1.00
   7.2965040481495080E+00   9.7658666315667420E-01
   1.8918745450712575E+00   9.0372226730345739E-01
   6.6694432110824120E-01   4.7404958461536373E-01
   2.6552202674130870E-01   7.1516067715011844E-02

     5 0
s      3     1.00
   3.3702276975336001E+00   2.7359110588908298E-01
   6.1389118221497996E-01   2.6460540653860526E-01
   1.6614291148415999E-01   8.2465947534082318E-02

     6 0
s      3     1.00
   3.3702276975336001E+00   2.7359110588908298E-01
   6.1389118221497996E-01   2.6460540653860526E-01
   1.6614291148415999E-01   8.2465947534082318E-02

     7 0
s      3     1.00
   3.3702276975336001E+00   2.7359110588908298E-01
   6.1389118221497996E-01   2.6460540653860526E-01
   1.6614291148415999E-01   8.2465947534082318E-02

     8 0
s      3     1.00
   3.3702276975336001E+00   2.7359110588908298E-01
   6.1389118221497996E-01   2.6460540653860526E-01
   1.6614291148415999E-01   8.2465947534082318E-02

     9 0
s      3     1.00
   3.3702276975336001E+00   2.7359110588908298E-01
   6.1389118221497996E-01   2.6460540653860526E-01
   1.6614291148415999E-01   8.2465947534082318E-02

    10 0
s      3     1.00
   3.3702276975336001E+00   2.7359110588908298E-01
   6.1389118221497996E-01   2.6460540653860526E-01
   1.6614291148415999E-01   8.2465947534082318E-02

    11 0
s      3     1.00
   3.3702276975336001E+00   2.7359110588908298E-01
   6.1389118221497996E-01   2.6460540653860526E-01
   1.6614291148415999E-01   8.2465947534082318E-02

    12 0
s      3     1.00
   3.3702276975336001E+00   2.7359110588908298E-01
   6.1389118221497996E-01   2.6460540653860526E-01
   1.6614291148415999E-01   8.2465947534082318E-02

    13 0
s      3     1.00
   3.3702276975336001E+00   2.7359110588908298E-01
   6.1389118221497996E-01   2.6460540653860526E-01
   1.6614291148415999E-01   8.2465947534082318E-02

    14 0
s      3     1.00
   3.3702276975336001E+00   2.7359110588908298E-01
   6.1389118221497996E-01   2.6460540653860526E-01
   1.6614291148415999E-01   8.2465947534082318E-02

    15 0
s      3     1.00
   3.3702276975336001E+00   2.7359110588908298E-01
   6.1389118221497996E-01   2.6460540653860526E-01
   1.6614291148415999E-01   8.2465947534082318E-02

    16 0
s      3     1.00
   3.3702276975336001E+00   2.7359110588908298E-01
   6.1389118221497996E-01   2.6460540653860526E-01
   1.6614291148415999E-01   8.2465947534082318E-02

[MO]
Sym=     1a
Ene=  -0.59867456926479035     
Spin= Alpha
Occup=     2.00000000
     1  -2.8323619095997549E-01
     2  -2.5228539814198498E-02
     3  -2.5255809311731551E-02
     4  -2.5252077612513885E-02
     5  -2.8325752705986479E-01
     6  -2.5233441868209989E-02
     7   2.5262727728962445E-02
     8   2.5232932092680353E-02
     9  -2.8326031027860049E-01
    10   2.5253857992328928E-02
    11  -2.5259806807195324E-02
    12   2.5232117818995450E-02
    13  -2.8324072161687253E-01
    14   2.5249436546006202E-02
    15   2.5255140876448486E-02
    16  -2.5250787246548646E-02
    17  -1.1549753050132468E-01
    18  -1.1549166497819466E-01
    19  -1.1551058739620561E-01
    20  -1.1551006086254056E-01
    21  -1.1549094254559263E-01
    22  -1.1551507662112756E-01
    23  -1.1549717566797425E-01
    24  -1.1551365182627048E-01
    25  -1.1550992918224985E-01
    26  -1.1550509461187344E-01
    27  -1.1549810057789252E-01
    28  -1.1551592963173124E-01
Sym=     2a
Ene=  -0.58709171555308470     
Spin= Alpha
Occup=     2.00000000
     1   2.7363519177553347E-01
     2   2.9099565675811054E-02
     3   4.1129980097437860E-02
     4   2.3923989668525034E-02
     5   3.5144420688698713E-01
     6   3.6271901965987619E-02
     7  -4.9321787037604176E-02
     8  -3.5315056237319328E-02
     9  -3.5550141434991023E-01
    10   3.6884367214330742E-02
    11  -4.9701027793102523E-02
    12   3.5738320708004909E-02
    13  -2.6955460473634851E-01
    14   2.8529511664484555E-02
    15   4.0740994068984134E-02
    16  -2.3495468962678637E-02
    17   1.0557499230094095E-01
    18   9.1317090277416427E-02
    19   1.0214613592659581E-01
    20   1.3179671720127348E-01
    21   1.2040316763339871E-01
    22   1.3185789506635592E-01
    23  -1.2195168507934906E-01
    24  -1.3322739148993237E-01
    25  -1.0075990484836135E-01
    26  -1.0405269215945098E-01
    27  -8.9773017983627620E-02
    28  -1.3332085688692832E-01
Sym=     3a
Ene=  -0.58709069239218070     
Spin= Alpha
Occup=     2.00000000
     1  -5.8998796756741766E-02
     2  -1.8310669326261891E-02
     3  -2.6236610038239778E-03
     4   6.3466275315565040E-04
     5   1.0856512729611550E-01
     6   2.3496008486248939E-02
     7  -9.7975450380517817E-03
     8  -4.0573419692528949E-03
     9   4.1163686818489031E-01
    10  -5.1750089056682179E-02
    11   3.9541247159095794E-02
    12  -5.0346169596244675E-02
    13  -4.6121770136975715E-01
    14   5.6934258792163218E-02
    15   4.6709532508081596E-02
    16  -5.5078084070783101E-02
    17  -2.8214732618056342E-02
    18  -2.4375430676992407E-02
    19  -1.1885745732596768E-02
    20   4.7037899537870992E-02
    21   4.1162269333405221E-02
    22   3.0439298720633386E-02
    23   1.5635017754025399E-01
    24   1.4580047912303348E-01
    25  -1.6436698301961838E-01
    26  -1.6650981924662864E-01
    27  -1.7316075256894148E-01
    28   1.4768997902526904E-01
Sym=     4a
Ene=  -0.58709004719915980     
Spin= Alpha
Occup=     2.00000000
     1   4.6875215241937979E-01
     2   5.3600165928515957E-02
     3   4.8624145229601873E-02
     4   5.9062449775279476E-02
     5  -4.0346527468914384E-01
     6  -4.6777442601085462E-02
     7   3.9186095403996528E-02
     8   5.2840128445971302E-02
     9   4.7374388814108076E-02
    10   4.7064416672640153E-03
    11   5.4065253371004584E-03
    12  -1.5598467287759878E-02
    13  -1.1264475022357234E-01
    14   2.1240407342882181E-03
    15   1.4849407784544640E-02
    16  -2.1791570095005038E-02
    17   1.6645559401999357E-01
    18   1.7524575265157213E-01
    19   1.7055465456723604E-01
    20  -1.4167507441497562E-01
    21  -1.5311489292899205E-01
    22  -1.4610826133375396E-01
    23   1.7921680407604001E-02
    24   2.5463509642671960E-02
    25  -4.9897363284494192E-02
    26  -3.3169001672767422E-02
    27  -4.0035333384170257E-02
    28   8.3854423196123018E-03
Sym=     5a
Ene=  -0.51075920766785743     
Spin= Alpha
Occup=     2.00000000
     1  -6.4346465247591489E-03
     2  -2.6651642205011605E-01
     3   9.5385726953568950E-02
     4   9.3385251706276595E-02
     5   4.3905808573449457E-03
     6   2.8165551374525777E-01
     7   4.7508466204208684E-02
     8   1.8104589303110596E-01
     9  -5.6195021656152196E-03
    10   2.5242599196720783E-01
    11  -5.8874510493949830E-03
    12  -1.9023605707588259E-01
    13   7.6648959546498406E-03
    14  -2.3729271200481883E-01
    15   4.1989436922823205E-02
    16  -1.0258199390913297E-01
    17  -1.7860403385066873E-01
    18  -4.6405262797708506E-02
    19   1.9967740753851451E-01
    20   2.3844355373021792E-01
    21  -2.3785592219110602E-02
    22  -1.9736986098249984E-01
    23   6.0245212915288823E-02
    24   1.5459328421876090E-01
    25  -1.5690488002921890E-01
    26   1.7714740974582527E-01
    27   9.9437349355363039E-03
    28  -2.3698158789727999E-01
Sym=     6a
Ene=  -0.51075430460296578     
Spin= Alpha
Occup=     2.00000000
     1  -7.6572164035801889E-03
     2   1.3326217333690268E-01
     3  -2.2538038472123109E-01
     4  -5.9069648328371018E-04
     5   5.1176676052895435E-03
     6  -1.1444090051770610E-01
     7  -2.8502207394584722E-01
     8   1.0855000925035697E-01
     9   6.8597119941485266E-03
    10   1.6798508125616760E-01
    11   2.3137163856163670E-01
    12  -1.9578997549911503E-02
    13  -4.3253455949049929E-03
    14  -1.4915141533132137E-01
    15   2.9100499570348654E-01
    16   8.9568670036433887E-02
    17   3.0315706779228836E-02
    18   1.3303227108653998E-01
    19  -1.9350305135878659E-01
    20   4.4185646042288279E-02
    21  -2.2043798879460802E-01
    22   1.9640406750419945E-01
    23  -1.3209738153741024E-01
    24   2.1721416065649476E-01
    25  -2.2011431182934571E-01
    26  -1.6391123120092502E-02
    27   2.1949786779365449E-01
    28  -5.8122142376573732E-02
Sym=     7a
Ene=  -0.51075407575931209     
Spin= Alpha
Occup=     2.00000000
     1  -3.6210290235566432E-03
     2   6.4599478361952747E-02
     3   1.8170824168902708E-01
     4  -2.9020041699434496E-01
     5  -8.2283144237885030E-03
     6   2.3404556902963940E-02
     7  -9.7062830181317186E-02
     8   2.1997013018742695E-01
     9   5.8789157006084473E-03
    10  -3.2007459411028956E-02
    11  -1.9836926284750994E-01
    12  -2.3741659717042080E-01
    13   5.9768412310559869E-03
    14   1.1998521709872330E-01
    15   8.0411885752684431E-02
    16   2.7273779946076737E-01
    17   2.1145070122091478E-01
    18  -2.4013046322017914E-01
    19   1.4387502759889304E-02
    20   1.3682123289054873E-01
    21  -1.6841328212496096E-01
    22  -8.2321812967939257E-04
    23   2.3757087215638278E-01
    24  -8.0327791862652709E-02
    25   6.6741763211198055E-02
    26  -2.1417233644220135E-01
    27   1.7097822595808831E-01
    28  -1.3408385524656602E-01
Sym=     8a
Ene=  -0.49143722016816799     
Spin= Alpha
Occup=     2.00000000
     1   1.6392441186177104E-05
     2   2.6927943534670495E-01
     3  -1.1915551030058745E-01
     4  -1.5009780724830701E-01
     5  -7.1621352282154821E-07
     6   2.6934663960134803E-01
     7   1.1911563927585191E-01
     8   1.5019182400342870E-01
     9  -1.6682595937859699E-05
    10  -2.6930245168533701E-01
    11  -1.1908199813580514E-01
    12   1.5018738983415697E-01
    13   2.4542309221267495E-06
    14  -2.6922978974885742E-01
    15   1.1910732004235233E-01
    16  -1.5010728355001193E-01
    17   1.7250532096758581E-01
    18   3.7283518059688089E-02
    19  -2.0975950715655339E-01
    20   1.7258175107223198E-01
    21   3.7224026897405151E-02
    22  -2.0978457938508188E-01
    23   3.7197798821399980E-02
    24  -2.0975356999452316E-01
    25  -2.0972131716216627E-01
    26   1.7248918800037780E-01
    27   3.7242591236981065E-02
    28   1.7256045882073254E-01
Sym=     9a
Ene=  -0.49142799993394642     
Spin= Alpha
Occup=     2.00000000
     1   1.4243828654984074E-06
     2  -1.7924017138548399E-02
     3   2.4214827315898382E-01
     4  -2.2424932340119233E-01
     5  -1.1578361379046587E-05
     6  -1.7912813243202652E-02
     7  -2.4215087985743719E-01
     8   2.2427340924281094E-01
     9  -1.1207426584459537E-05
    10   1.7925993527597335E-02
    11   2.4216757022595339E-01
    12   2.2426925733286315E-01
    13   6.3026915014282408E-07
    14   1.7940549667994792E-02
    15  -2.4216210759257484E-01
    16  -2.2424161025516737E-01
    17   1.4259195411034464E-01
    18  -2.2071291440815879E-01
    19   7.8103111115992205E-02
    20   1.4259952889850117E-01
    21  -2.2072967956962813E-01
    22   7.8086551285424355E-02
    23  -2.2073622057263018E-01
    24   7.8105929756163262E-02
    25   7.8122379240896656E-02
    26   1.4258478630109431E-01
    27  -2.2071776055643547E-01
    28   1.4259691771064564E-01
Sym=    10a
Ene=  -0.48507868006500998     
Spin= Alpha
Occup=     2.00000000
     1  -2.9982099381242008E-02
     2   2.9626817294797464E-01
     3  -3.7222220419957167E-02
     4  -2.0115232039834818E-01
     5   5.2150974649492143E-02
     6  -1.5463535123850999E-01
     7   9.9041296172199519E-02
     8  -1.5310032705927118E-01
     9   1.6394432983661566E-02
    10   2.6670785270465325E-01
    11  -4.9695746270697741E-02
    12  -2.8478327089201932E-01
    13  -3.8545591463938669E-02
    14  -1.2521508629071224E-01
    15  -1.8592367096236526E-01
    16  -2.3683284478664510E-01
    17   2.3492712539315672E-01
    18  -4.0486112458340315E-02
    19  -1.7699005790335251E-01
    20  -1.6319624246387857E-01
    21   9.5593788821885864E-02
    22   3.7323841574691152E-02
    23   1.2624145622063868E-01
    24   1.3295378391885448E-01
    25   6.6260744223195743E-03
    26   1.9708661462599272E-01
    27  -1.8133881926185766E-01
    28  -2.6869366782373560E-01
Sym=    11a
Ene=  -0.48507857080834271     
Spin= Alpha
Occup=     2.00000000
     1   3.5888777374325588E-02
     2   1.5452275126361426E-01
     3  -2.9255420680348571E-01
     4   6.8926408908740508E-02
     5   3.0152254224714882E-02
     6   2.6726167966714759E-01
     7   1.1344461663577951E-01
     8   2.1190357964673986E-01
     9  -5.5354998189432854E-02
    10   1.1235232349266662E-01
    11   1.6814934322938946E-01
    12  -5.0907782480892588E-02
    13  -1.0678105441679580E-02
    14   3.0958057019403767E-01
    15  -2.3787490963248029E-01
    16   9.2199635785060338E-02
    17   3.1271759856436811E-03
    18   1.8427389683533255E-01
    19  -2.0819433632708936E-01
    20   2.1038675571749313E-01
    21  -2.0056371315260425E-02
    22  -2.0782498080231229E-01
    23  -6.1514548500806149E-02
    24   1.4523806951294663E-01
    25   2.7089319040728799E-01
    26  -1.6204703181671826E-01
    27  -1.0267988979048855E-01
    28  -5.1589396277106209E-02
Sym=    12a
Ene=  -0.48507674649469956     
Spin= Alpha
Occup=     2.00000000
     1  -4.2930380836236091E-02
     2  -1.7530187474584531E-02
     3  -1.5804642875442287E-01
     4   2.5839249213617149E-01
     5   2.0027498283525267E-02
     6  -1.2872450680210151E-01
     7  -2.9879068177309859E-01
     8   2.0880963877976441E-01
     9  -2.6399372446703515E-02
    10  -1.6786395891749767E-01
    11  -2.8497516181115501E-01
    12  -1.6812198155379371E-01
    13   4.9295670668295148E-02
    14   2.1613978931501656E-02
    15  -1.4424110731998227E-01
    16  -2.1771416169262364E-01
    17  -1.4330125242905528E-01
    18   2.0037891985613782E-01
    19  -3.2128510258931653E-02
    20   6.9247106316958310E-02
    21  -2.5731162560850673E-01
    22   1.7635661688330911E-01
    23   2.3669684449598499E-01
    24  -1.9218472220168661E-01
    25   4.7956218869102611E-02
    26   1.0318074287201660E-01
    27  -1.7977852001800718E-01
    28  -2.9126845369386360E-02
Sym=    13a
Ene=  -0.39242411822610579     
Spin= Alpha
Occup=     2.00000000
     1  -2.8462101152315768E-02
     2  -5.1915140033551979E-02
     3   5.6183013045723700E-02
     4   9.0817011946985438E-02
     5   3.6345490867249791E-01
     6  -4.1498887552285202E-01
     7   4.2400800413972667E-01
     8   3.7539729370892261E-01
     9  -2.4178585455467685E-01
    10  -2.8139580315402662E-01
    11   3.2057880696234065E-01
    12  -2.0579326613256768E-01
    13  -9.2991915909220221E-02
    14  -1.8521684730328583E-01
    15  -4.6948121229276676E-02
    16   7.8494165754077402E-02
    17  -5.6843087296709512E-03
    18  -5.9388756217714623E-05
    19   2.7524547146589702E-02
    20  -9.9815988724939644E-02
    21  -8.8579148488743167E-02
    22  -8.9794831896992208E-02
    23   5.0262613818951189E-02
    24   5.7588467324931544E-02
    25   4.6085028886982968E-03
    26   2.8242589599371742E-02
    27   3.8316814945219026E-02
    28   7.7198163695182315E-02
Sym=    14a
Ene=  -0.39241968180785225     
Spin= Alpha
Occup=     2.00000000
     1   3.7245341177711327E-01
     2  -4.2604099593540951E-01
     3  -3.9123483511400398E-01
     4  -4.2715408927010645E-01
     5  -1.2176828032198579E-01
     6   7.6649142359706463E-02
     7  -1.1601392747899017E-01
     8  -2.1424376794336572E-01
     9  -2.1204800514781427E-01
    10  -2.8981500555568590E-01
    11   1.6761001284241395E-01
    12  -2.5108431323225233E-01
    13  -3.8693325653590890E-02
    14  -5.9660088027628871E-02
    15  -1.0768651733295274E-01
    16  -3.8104961710812707E-02
    17  -9.1706094453350748E-02
    18  -1.0063512559077971E-01
    19  -9.2720553271555720E-02
    20   1.2771099480463476E-02
    21   3.4301304723162694E-02
    22   4.6132396852043643E-02
    23   7.0826130923139982E-02
    24   4.2194090281934646E-02
    25   4.4011952106785546E-03
    26   2.9693729332208818E-02
    27  -4.4840088476222513E-03
    28   4.9272835729295361E-02
Sym=    15a
Ene=  -0.39241509885863135     
Spin= Alpha
Occup=     2.00000000
     1  -1.0235561333034054E-01
     2   9.6275680591566562E-02
     3   1.9322746818899134E-01
     4   5.2477026062900056E-02
     5  -5.5942083791984058E-02
     6   1.2434574670766184E-01
     7   1.9403779175795298E-02
     8  -8.2029590813670089E-02
     9  -2.1585018309980356E-01
    10  -1.7404652665678613E-01
    11   2.5037098548452613E-01
    12  -2.9682769368464618E-01
    13   3.7392584530087403E-01
    14   3.9436405823827614E-01
    15   4.2388900997825629E-01
    16  -4.3103421749449766E-01
    17   4.1759726051038504E-02
    18   7.7177817543029638E-03
    19   2.8858019138279015E-02
    20   8.0824412926516209E-03
    21   3.4166958774888984E-02
    22   5.7362466204716168E-04
    23   5.1419166194980860E-02
    24   7.1341759314322725E-02
    25  -1.0070480124121553E-01
    26  -9.2215253439503014E-02
    27  -9.3245028923270315E-02
    28   4.2442708487491758E-02
Sym=    16a
Ene=  -0.38120246296677357     
Spin= Alpha
Occup=     2.00000000
     1   1.9774847307943355E-01
     2  -2.6476189543611656E-01
     3  -2.6480935724368959E-01
     4  -2.6482949981534876E-01
     5   1.9761359499019118E-01
     6  -2.6461606199758642E-01
     7   2.6469892028023850E-01
     8   2.6464624595093039E-01
     9   1.9773513735171477E-01
    10   2.6477946969168487E-01
    11  -2.6482382624347628E-01
    12   2.6474443547498849E-01
    13   1.9788008868993687E-01
    14   2.6493300208281995E-01
    15   2.6494686508850962E-01
    16  -2.6493683743356483E-01
    17  -4.8447316435497059E-02
    18  -4.8462503254600629E-02
    19  -4.8465146124351023E-02
    20  -4.8428732673092771E-02
    21  -4.8422237136385236E-02
    22  -4.8432833340696153E-02
    23  -4.8451811985448762E-02
    24  -4.8447865284890076E-02
    25  -4.8483082436127568E-02
    26  -4.8484889936649372E-02
    27  -4.8493159191912279E-02
    28  -4.8464007074523002E-02
Sym=    17a
Ene=   -9.5570162765216723E-002
Spin= Alpha
Occup=     0.00000000
     1  -5.2548326874371931E-01
     2  -1.2615956152277225E-01
     3  -1.2609615874616856E-01
     4  -1.2617492803851499E-01
     5  -5.2548524848543643E-01
     6  -1.2615993706615561E-01
     7   1.2609411065122719E-01
     8   1.2618336720153098E-01
     9  -5.2548524475230929E-01
    10   1.2617648306679197E-01
    11  -1.2609025560163015E-01
    12   1.2615420877375738E-01
    13  -5.2548462242250682E-01
    14   1.2617069172565570E-01
    15   1.2609457409620980E-01
    16  -1.2614764285328042E-01
    17   2.4236224134067019E-01
    18   2.4243993164977035E-01
    19   2.4235017347042581E-01
    20   2.4236335833805397E-01
    21   2.4244256800290881E-01
    22   2.4235146845877104E-01
    23   2.4243284592400124E-01
    24   2.4233036665652624E-01
    25   2.4233399536145306E-01
    26   2.4238317253965519E-01
    27   2.4242935846178315E-01
    28   2.4238697870196463E-01
Sym=    18a
Ene=   0.12664903665430999     
Spin= Alpha
Occup=     0.00000000
     1  -5.0539760611582207E-01
     2  -1.4844075135888793E-01
     3  -3.1435789579149893E-03
     4  -2.7643521481675487E-01
     5   5.0577016750311599E-01
     6   1.4864988280261077E-01
     7  -3.2430623365813983E-03
     8  -2.7644734006412225E-01
     9   4.6633768330667835E-01
    10  -1.4901071028153984E-01
    11  -1.8527634704537440E-02
    12  -2.6443491621802179E-01
    13  -4.6671962436642561E-01
    14   1.4920996157509145E-01
    15  -1.8389152685163633E-02
    16  -2.6442164040717286E-01
    17   1.5443018748759874E-01
    18   4.7381482917225937E-01
    19   2.6582068624147676E-01
    20  -1.5477546769446546E-01
    21  -4.7402605851304364E-01
    22  -2.6592498173017726E-01
    23  -4.6210023884978030E-01
    24  -2.2827288887752523E-01
    25   2.2840928750629785E-01
    26   1.3494739691236571E-01
    27   4.6227228986682439E-01
    28  -1.3457965201054703E-01
Sym=    19a
Ene=   0.12667844790898716     
Spin= Alpha
Occup=     0.00000000
     1  -4.8539098903633765E-01
     2  -2.7052183660745732E-01
     3  -1.4796209960855758E-01
     4   7.1351070941065159E-03
     5  -4.8804782010335845E-01
     6  -2.7033210424680676E-01
     7   1.4970673890391922E-01
     8  -6.4280640638233466E-03
     9   4.8853956713797264E-01
    10  -2.7053905361113467E-01
    11   1.4971388082185053E-01
    12   6.2187255638596626E-03
    13   4.8487294975006928E-01
    14  -2.7040422935749830E-01
    15  -1.4797682357676428E-01
    16  -7.4694707655266913E-03
    17   4.6714044766516521E-01
    18   2.4782871205734006E-01
    19   1.4380813973030276E-01
    20   4.6859241639984506E-01
    21   2.4831563036181484E-01
    22   1.4657586213417523E-01
    23  -2.4875367700805007E-01
    24  -1.4678299140854487E-01
    25  -1.4350953804211203E-01
    26  -4.6704920123584981E-01
    27  -2.4730999583674626E-01
    28  -4.6882846666465156E-01
Sym=    20a
Ene=   0.12672314788774136     
Spin= Alpha
Occup=     0.00000000
     1  -4.6847173304349443E-01
     2   1.1896054835337977E-02
     3  -2.7094730148853707E-01
     4  -1.3796854520770638E-01
     5   4.6529048937517775E-01
     6  -1.3659228639130817E-02
     7  -2.6997797660794853E-01
     8  -1.3800466490875621E-01
     9  -5.0431890659087908E-01
    10  -1.6274915854928172E-03
    11  -2.6931074962263651E-01
    12   1.5967940808056824E-01
    13   5.0749633587153475E-01
    14  -1.2038762078507997E-04
    15  -2.7028916449983548E-01
    16   1.5964824497391134E-01
    17   2.4350612375376868E-01
    18   1.2728736082813866E-01
    19   4.5807041059876463E-01
    20  -2.4046028022454069E-01
    21  -1.2565494403550490E-01
    22  -4.5711952768942360E-01
    23   1.6325709595588131E-01
    24   4.7685876883034267E-01
    25  -4.7782672856915304E-01
    26  -2.5518342320415333E-01
    27  -1.6488038719164147E-01
    28   2.5214979971709861E-01
Sym=    21a
Ene=   0.17225957503870631     
Spin= Alpha
Occup=     0.00000000
     1  -6.3888893221340309E-02
     2  -3.6612213616531403E-01
     3   3.8157729214323011E-01
     4  -1.2965028386254770E-01
     5   7.5812292246394963E-02
     6   3.5257391402309413E-01
     7   3.7751168612074848E-01
     8  -1.6037520833210184E-01
     9  -2.3835518452871968E-01
    10   4.0953513312366996E-01
    11  -3.7374220438912996E-02
    12  -2.3108188462155066E-02
    13   2.2643300909741332E-01
    14  -4.2309403164447462E-01
    15  -3.3275588333459595E-02
    16  -5.3814106359228828E-02
    17   1.1273013955313448E-01
    18   4.6710752370100161E-01
    19  -4.3930090602006294E-01
    20  -9.0794002358312115E-02
    21  -4.8926595448843008E-01
    22   4.1332768031244915E-01
    23   1.9380055399112739E-01
    24  -1.1473887123593607E-01
    25   1.4073915647568500E-01
    26  -4.6616259033160623E-01
    27  -1.7168540734389098E-01
    28   4.4424453262554964E-01
Sym=    22a
Ene=   0.17228415514274006     
Spin= Alpha
Occup=     0.00000000
     1  -1.5927257795958344E-01
     2  -3.0737474715225838E-01
     3  -2.6230960763508310E-01
     4   2.8701992381613750E-01
     5   2.7672331428811769E-01
     6   1.7403725562193700E-01
     7  -3.0299040450394094E-01
     8  -1.4650875147090250E-02
     9   1.0934147133854367E-02
    10   7.3269799386322540E-02
    11   4.3130253054314621E-01
    12   3.3938700861903198E-01
    13  -1.2840831274837725E-01
    14  -2.0659420760258210E-01
    15   4.7194104950306864E-01
    16   3.7679926923124600E-02
    17   5.5700607644861722E-01
    18  -2.0783764913680924E-01
    19   2.6130641502537940E-04
    20  -3.4175685861412591E-01
    21  -9.3413706473050480E-03
    22  -2.5628027711716161E-01
    23   5.3229544559103470E-01
    24  -2.7219202980659513E-01
    25   5.2818678119048257E-01
    26   6.8473065873568731E-02
    27  -3.1504373505668309E-01
    28  -2.8375097387818110E-01
Sym=    23a
Ene=   0.17228908292629810     
Spin= Alpha
Occup=     0.00000000
     1   2.4312055140318903E-01
     2  -8.1697566214276068E-02
     3   1.4476055648845348E-01
     4   3.6932402454884716E-01
     5   7.8951142710426775E-02
     6  -2.8394224385524253E-01
     7   3.3229270805062855E-02
     8  -4.5791895214609152E-01
     9  -1.7787813753171136E-01
    10  -2.4928966053990451E-01
    11  -2.1915388122724525E-01
    12   3.4632411974221589E-01
    13  -1.4427709513817216E-01
    14  -1.1633296076023329E-01
    15  -1.0761129460230102E-01
    16  -4.8094771285328386E-01
    17   1.2747436451077729E-01
    18  -2.7932435434173736E-01
    19  -3.8197162496281306E-01
    20   4.6281106361951740E-01
    21  -3.1625075726700658E-01
    22  -3.2007107509182364E-01
    23   1.3654751107644370E-01
    24   5.0172503521073619E-01
    25   2.0034838647841041E-01
    26  -3.4246369730088344E-01
    27   4.5907533878612367E-01
    28  -2.4780318425738374E-01
Sym=    24a
Ene=   0.21680213963605166     
Spin= Alpha
Occup=     0.00000000
     1  -3.7621666415271260E-02
     2   1.6510104179481883E-01
     3   1.8197111782705636E-01
     4  -3.7030982969396092E-01
     5   3.1050275331720455E-02
     6  -1.2276376524563401E-01
     7   2.6576503443504540E-01
     8  -4.0761032379742279E-01
     9  -2.5092341771902789E-02
    10  -2.0187378838989820E-01
    11   2.3026091262842263E-01
    12   4.4756054278003077E-01
    13   3.1660438908535635E-02
    14   2.4416984440947867E-01
    15   1.4649683080724654E-01
    16   4.1024769747900519E-01
    17  -3.7938621990448651E-01
    18   3.9693628606295778E-01
    19   4.6080435757471658E-02
    20   3.8791119265698171E-01
    21  -4.8393869193147387E-01
    22   4.3551853793913742E-02
    23   4.7581443405994295E-01
    24   3.8914750895181163E-02
    25  -1.2849060899109918E-01
    26   4.6377784957682344E-01
    27  -3.8883621611953312E-01
    28  -4.7233087356643289E-01
Sym=    25a
Ene=   0.21683627057441399     
Spin= Alpha
Occup=     0.00000000
     1   2.9068679958615239E-02
     2  -1.8663747422730476E-01
     3   4.3144799622574992E-01
     4  -2.2645971899131165E-01
     5   3.5235451776902522E-02
     6  -2.2861668372355795E-01
     7  -3.9064369745991528E-01
     8   1.3986009398575752E-01
     9  -3.5574154292905134E-02
    10  -2.2438063591375479E-01
    11  -3.8866589354624176E-01
    12  -1.4189978165070871E-01
    13  -2.8736618296271256E-02
    14  -1.9062559862255701E-01
    15   4.3311296417456074E-01
    16   2.2435298106802884E-01
    17  -8.8116264938120831E-02
    18   4.7185606326414620E-01
    19  -4.3305028191494110E-01
    20   4.2623151536935223E-03
    21   3.8204078506163441E-01
    22  -4.4604994756120575E-01
    23  -3.8144170110365361E-01
    24   4.4160277160275108E-01