[Molden Format]
[Title]
tblite version 0.6.0
[Atoms] AU
H       1      1   2.9859500134165464E+00   6.9603469765911097E-01   2.0343818248709482E+00
H       2      1   3.4662679386075351E-01   3.2234468243339820E+00  -3.3014040740981736E+00
H       3      1  -5.9584973332668345E-01  -4.6550927538801296E-01  -5.8512858002852317E+00
N       4      7  -1.3040697629825720E-01   1.7358432696486359E+00  -2.1687062034255438E+00
Al      5     13  -1.2181459947948177E+00   2.6517355076601374E+00   1.0795897635567473E+00
C       6      6  -2.7787120641243717E+00  -2.4685086074800018E+00  -2.4640276888933021E+00
S       7     16   6.8121773306118705E-01  -1.8325617203780598E+00   4.8525638426698166E+00
F       8      9   4.3558470631419848E+00   4.4416822031744940E-01  -8.8290555672535220E-01
H       9      1  -3.1711643385619457E+00  -4.2059592781702397E+00  -3.4740904599004017E+00
S      10     16  -4.7708235501767469E+00   4.0467067664153267E-01   2.2518936481848475E+00
H      11      1   2.1262289395963254E+00   2.3078858553121262E+00   4.6397948539834895E+00
H      12      1   2.6155941175815469E+00   8.5658167180938938E-01  -1.6049540352433758E+00
H      13      1   3.0734161760672163E+00  -2.4778419648095023E+00   5.4780134901221054E+00
B      14      5  -1.1576804279853374E+00  -4.0576463909507543E-01  -3.6513942025155268E+00
N      15      7   1.5195597683157398E+00   1.0448070865617585E+00   3.3114649759856531E+00
B      16      5  -3.8816573308005275E+00  -1.5090279466780052E+00  -2.4893400034147553E-01
[Core]
H  : 0
N  : 2
Al : 10
C  : 2
S  : 10
F  : 2
B  : 2
[Pseudo]
H       1      1
H       2      1
H       3      1
N       4      5
Al      5      3
C       6      4
S       7      6
F       8      7
H       9      1
S      10      6
H      11      1
H      12      1
H      13      1
B      14      3
N      15      5
B      16      3
[Nval]
H       1
N       5
Al      3
C       4
S       6
F       7
B       3
[GTO]
     1 0
s      4     1.00
   7.6119972070599680E+00   1.8536103626168826E-01
   1.3929017058802009E+00   2.3771678223106302E-01
   3.8696334625048251E-01   1.8632205597323881E-01
   1.2842965592697322E-01   4.4589693726254674E-02
s      7     1.00
   1.0256286070314902E+01  -1.3186544678254284E+00
   6.2279653258753898E-01   1.6038777007695826E+00
   2.3910076678539138E-01   6.0132301017727974E-01
   7.6119972070599680E+00  -9.8090431986330995E-01
   1.3929017058802009E+00  -1.2579635035340500E+00
   3.8696334625048251E-01  -9.8598989990507713E-01
   1.2842965592697322E-01  -2.3596233641959452E-01

     2 0
s      4     1.00
   7.6119972070599680E+00   1.8536103626168826E-01
   1.3929017058802009E+00   2.3771678223106302E-01
   3.8696334625048251E-01   1.8632205597323881E-01
   1.2842965592697322E-01   4.4589693726254674E-02
s      7     1.00
   1.0256286070314902E+01  -1.3186544678254284E+00
   6.2279653258753898E-01   1.6038777007695826E+00
   2.3910076678539138E-01   6.0132301017727974E-01
   7.6119972070599680E+00  -9.8090431986330995E-01
   1.3929017058802009E+00  -1.2579635035340500E+00
   3.8696334625048251E-01  -9.8598989990507713E-01
   1.2842965592697322E-01  -2.3596233641959452E-01

     3 0
s      4     1.00
   7.6119972070599680E+00   1.8536103626168826E-01
   1.3929017058802009E+00   2.3771678223106302E-01
   3.8696334625048251E-01   1.8632205597323881E-01
   1.2842965592697322E-01   4.4589693726254674E-02
s      7     1.00
   1.0256286070314902E+01  -1.3186544678254284E+00
   6.2279653258753898E-01   1.6038777007695826E+00
   2.3910076678539138E-01   6.0132301017727974E-01
   7.6119972070599680E+00  -9.8090431986330995E-01
   1.3929017058802009E+00  -1.2579635035340500E+00
   3.8696334625048251E-01  -9.8598989990507713E-01
   1.2842965592697322E-01  -2.3596233641959452E-01

     4 0
s      6     1.00
   1.1635365971147681E+02  -1.0481584191386649E-01
   2.1338078198289018E+01  -1.4625883819951369E-01
   5.9964603196577766E+00  -1.4065789824437358E-01
   8.5750713905063214E-01   2.1251986569505041E-01
   3.8918947867337178E-01   1.9740094712866676E-01
   1.8560226313108005E-01   3.4522605169839210E-02
p      6     1.00
   2.6217456931594718E+01   6.7009374522776088E-01
   6.8369796200633308E+00   8.1064415284324187E-01
   2.4463364514593500E+00   8.2789080668828696E-01
   1.0226153980296850E+00   5.9363684759925739E-01
   4.6760942115422172E-01   2.2115377419481211E-01
   2.2106923553312668E-01   2.2727749206149537E-02

     5 0
s      6     1.00
   7.3422748777736526E+00  -2.1539252898973165E-02
   2.0639400582871859E+00  -6.9208603568029631E-02
   8.0608323433394369E-01  -9.6273363824265448E-02
   1.9374369429454014E-01   1.1518908705234546E-01
   1.0761776202116859E-01   6.7162119606093168E-02
   6.1123138511908537E-02   6.3287806052248728E-03
p      6     1.00
   7.7195616652634547E+00  -6.1075351077976570E-02
   2.0382712208354126E+00  -4.9277581291458816E-02
   3.4180822529790722E-01   6.1073391094070555E-02
   1.7204797938988617E-01   7.0843367231692142E-02
   9.2373881361271809E-02   2.8374059667700752E-02
   5.0401250658131405E-02   2.5228723533208442E-03
d      4     1.00
   3.3838135208252035E-01   1.4329403892750654E-02
   1.0758176240347124E-01   1.0130299980855103E-02
   4.3746774702122591E-02   3.8579656715411084E-03
   1.9474956024440000E-02   4.0647371173921143E-04

     6 0
s      6     1.00
   1.0638971661757030E+02  -9.8009151699919875E-02
   1.9510792340428655E+01  -1.3676085979760455E-01
   5.4829535718846767E+00  -1.3152364218142998E-01
   7.8407453403153715E-01   1.9871892812986372E-01
   3.5586124621498083E-01   1.8458182484227953E-01
   1.6970821740424907E-01   3.2280723842753281E-02
p      6     1.00
   1.9697346208514816E+01   4.6871300964462981E-01
   5.1366673338425883E+00   5.6702433552910014E-01
   1.8379485147102486E+00   5.7908791780781932E-01
   7.6829761123302320E-01   4.1523341391527901E-01
   3.5131800475041969E-01   1.5469126795368998E-01
   1.6609075699863593E-01   1.5897464808064834E-02

     7 0
s      6     1.00
   2.0570082998331241E+01  -4.6642808095486016E-02
   5.7823248256569624E+00  -1.4986980420913609E-01
   2.2583190237138488E+00  -2.0847798457188790E-01
   5.4279142886713172E-01   2.4943959325222997E-01
   3.0150141934502789E-01   1.4543818538025630E-01
   1.7124229931986695E-01   1.3704843925297437E-02
p      6     1.00
   2.0165406064153718E+01  -2.0283079165164267E-01
   5.3244690073502596E+00  -1.6365048497656376E-01
   8.9288769985682892E-01   2.0282428255950866E-01
   4.4943191302246038E-01   2.3527030144332017E-01
   2.4130344547334270E-01   9.4230043433118402E-02
   1.3166054365960272E-01   8.3784405267975856E-03
d      4     1.00
   3.5463819794394853E+00   8.7476526857389636E-01
   1.1275031001441498E+00   6.1842311444441977E-01
   4.5848499779140417E-01   2.3551673203390344E-01
   2.0410590793610742E-01   2.4813948178100041E-02

     8 0
s      6     1.00
   2.4387996338406990E+02  -1.8258873595224784E-01
   4.4725105704361830E+01  -2.5478225334142562E-01
   1.2568719598666117E+01  -2.4502544055549336E-01
   1.7973548076770878E+00   3.7020867202391128E-01
   8.1575015383005578E-01   3.4387158232835302E-01
   3.8902663868632509E-01   6.0138226480300504E-02
p      6     1.00
   2.9892249929549273E+01   7.8948815053233434E-01
   7.7952909048122772E+00   9.5508122188266631E-01
   2.7892293600247955E+00   9.7540080991637967E-01
   1.1659511881516988E+00   6.9940849356784407E-01
   5.3315230851811046E-01   2.6055799716943007E-01
   2.5205560011150402E-01   2.6777281259992819E-02

     9 0
s      4     1.00
   7.6119972070599680E+00   1.8536103626168826E-01
   1.3929017058802009E+00   2.3771678223106302E-01
   3.8696334625048251E-01   1.8632205597323881E-01
   1.2842965592697322E-01   4.4589693726254674E-02
s      7     1.00
   1.0256286070314902E+01  -1.3186544678254284E+00
   6.2279653258753898E-01   1.6038777007695826E+00
   2.3910076678539138E-01   6.0132301017727974E-01
   7.6119972070599680E+00  -9.8090431986330995E-01
   1.3929017058802009E+00  -1.2579635035340500E+00
   3.8696334625048251E-01  -9.8598989990507713E-01
   1.2842965592697322E-01  -2.3596233641959452E-01

    10 0
s      6     1.00
   2.0570082998331241E+01  -4.6642808095486016E-02
   5.7823248256569624E+00  -1.4986980420913609E-01
   2.2583190237138488E+00  -2.0847798457188790E-01
   5.4279142886713172E-01   2.4943959325222997E-01
   3.0150141934502789E-01   1.4543818538025630E-01
   1.7124229931986695E-01   1.3704843925297437E-02
p      6     1.00
   2.0165406064153718E+01  -2.0283079165164267E-01
   5.3244690073502596E+00  -1.6365048497656376E-01
   8.9288769985682892E-01   2.0282428255950866E-01
   4.4943191302246038E-01   2.3527030144332017E-01
   2.4130344547334270E-01   9.4230043433118402E-02
   1.3166054365960272E-01   8.3784405267975856E-03
d      4     1.00
   3.5463819794394853E+00   8.7476526857389636E-01
   1.1275031001441498E+00   6.1842311444441977E-01
   4.5848499779140417E-01   2.3551673203390344E-01
   2.0410590793610742E-01   2.4813948178100041E-02

    11 0
s      4     1.00
   7.6119972070599680E+00   1.8536103626168826E-01
   1.3929017058802009E+00   2.3771678223106302E-01
   3.8696334625048251E-01   1.8632205597323881E-01
   1.2842965592697322E-01   4.4589693726254674E-02
s      7     1.00
   1.0256286070314902E+01  -1.3186544678254284E+00
   6.2279653258753898E-01   1.6038777007695826E+00
   2.3910076678539138E-01   6.0132301017727974E-01
   7.6119972070599680E+00  -9.8090431986330995E-01
   1.3929017058802009E+00  -1.2579635035340500E+00
   3.8696334625048251E-01  -9.8598989990507713E-01
   1.2842965592697322E-01  -2.3596233641959452E-01

    12 0
s      4     1.00
   7.6119972070599680E+00   1.8536103626168826E-01
   1.3929017058802009E+00   2.3771678223106302E-01
   3.8696334625048251E-01   1.8632205597323881E-01
   1.2842965592697322E-01   4.4589693726254674E-02
s      7     1.00
   1.0256286070314902E+01  -1.3186544678254284E+00
   6.2279653258753898E-01   1.6038777007695826E+00
   2.3910076678539138E-01   6.0132301017727974E-01
   7.6119972070599680E+00  -9.8090431986330995E-01
   1.3929017058802009E+00  -1.2579635035340500E+00
   3.8696334625048251E-01  -9.8598989990507713E-01
   1.2842965592697322E-01  -2.3596233641959452E-01

    13 0
s      4     1.00
   7.6119972070599680E+00   1.8536103626168826E-01
   1.3929017058802009E+00   2.3771678223106302E-01
   3.8696334625048251E-01   1.8632205597323881E-01
   1.2842965592697322E-01   4.4589693726254674E-02
s      7     1.00
   1.0256286070314902E+01  -1.3186544678254284E+00
   6.2279653258753898E-01   1.6038777007695826E+00
   2.3910076678539138E-01   6.0132301017727974E-01
   7.6119972070599680E+00  -9.8090431986330995E-01
   1.3929017058802009E+00  -1.2579635035340500E+00
   3.8696334625048251E-01  -9.8598989990507713E-01
   1.2842965592697322E-01  -2.3596233641959452E-01

    14 0
s      6     1.00
   7.6990398173027586E+01  -7.6898756216584013E-02
   1.4119256246921699E+01  -1.0730365312972108E-01
   3.9678156130543663E+00  -1.0319449073280038E-01
   5.6740644200991885E-01   1.5591644397317811E-01
   2.5752394039102466E-01   1.4482436083129843E-01
   1.2281171194538201E-01   2.5327711445550499E-02
p      6     1.00
   1.3117134360046107E+01   2.8196556211889451E-01
   3.4206818963128423E+00   3.4110710010753631E-01
   1.2239525750874896E+00   3.4836423760616381E-01
   5.1163557203911825E-01   2.4979362756314033E-01
   2.3395463645871700E-01   9.3058245506172033E-02
   1.1060549743351164E-01   9.5635015641446098E-03

    15 0
s      6     1.00
   1.1635365971147681E+02  -1.0481584191386649E-01
   2.1338078198289018E+01  -1.4625883819951369E-01
   5.9964603196577766E+00  -1.4065789824437358E-01
   8.5750713905063214E-01   2.1251986569505041E-01
   3.8918947867337178E-01   1.9740094712866676E-01
   1.8560226313108005E-01   3.4522605169839210E-02
p      6     1.00
   2.6217456931594718E+01   6.7009374522776088E-01
   6.8369796200633308E+00   8.1064415284324187E-01
   2.4463364514593500E+00   8.2789080668828696E-01
   1.0226153980296850E+00   5.9363684759925739E-01
   4.6760942115422172E-01   2.2115377419481211E-01
   2.2106923553312668E-01   2.2727749206149537E-02

    16 0
s      6     1.00
   7.6990398173027586E+01  -7.6898756216584013E-02
   1.4119256246921699E+01  -1.0730365312972108E-01
   3.9678156130543663E+00  -1.0319449073280038E-01
   5.6740644200991885E-01   1.5591644397317811E-01
   2.5752394039102466E-01   1.4482436083129843E-01
   1.2281171194538201E-01   2.5327711445550499E-02
p      6     1.00
   1.3117134360046107E+01   2.8196556211889451E-01
   3.4206818963128423E+00   3.4110710010753631E-01
   1.2239525750874896E+00   3.4836423760616381E-01
   5.1163557203911825E-01   2.4979362756314033E-01
   2.3395463645871700E-01   9.3058245506172033E-02
   1.1060549743351164E-01   9.5635015641446098E-03

[6D]
[MO]
Sym=     1a
Ene=  -0.90460551073339013     
Spin= Alpha
Occup=     2.00000000
     1  -1.0108005685017903E-02
     2  -6.3094370775884819E-03
     3  -2.7920608525364666E-03
     4   2.0413953106852276E-03
     5  -5.2044133708267120E-04
     6   6.5015180820721010E-04
     7  -3.8831782078103225E-03
     8   7.8033073484887758E-04
     9  -9.1937018002097521E-04
    10  -1.6351697260293873E-03
    11   2.1842483508450528E-02
    12  -1.0566852267395226E-02
    13   1.6536232931187653E-02
    14  -1.6082902582191676E-02
    15   5.4793649443426150E-03
    16  -5.6665306451179898E-03
    17   1.8716570077537421E-04
    18   1.0460242344528428E-03
    19   4.9011001351142547E-04
    20   1.4814793656640972E-02
    21  -6.0311399804289123E-04
    22  -4.8196244953944167E-06
    23  -3.4447094094480557E-04
    24   3.3429747782936699E-06
    25  -9.2015645232319176E-01
    26   3.2582055730496676E-04
    27  -9.7784132461387237E-03
    28   5.4403772105270894E-03
    29   3.8643231815777622E-03
    30   2.5610928545282698E-03
    31  -6.4254160361060320E-03
    32  -1.0298677850711126E-03
    33   4.2405780702000802E-03
    34  -1.5941665300554027E-02
    35  -1.6069166780978735E-03
    36  -1.7877474009632792E-04
    37  -1.0729289018514942E-04
    38   1.9116845230171870E-04
    39  -2.7595649314157738E-04
    40   1.8734713682514107E-04
    41  -1.0283598627838623E-02
    42  -1.0453255585200526E-03
    43  -2.0223486032076819E-03
    44   1.1462309034106191E-03
    45   2.6307206978411156E-03
    46  -2.0812342054524380E-03
    47  -5.4948649238867775E-04
    48  -3.3690760275802210E-03
    49   3.4223012692201397E-03
    50   2.3551761350451396E-03
    51  -1.5194600888225095E-02
    52  -4.0624507274804053E-03
    53  -1.1553016793053386E-03
    54  -2.1513803186924115E-03
    55  -7.4817160918216802E-02
    56  -6.4395870716966474E-05
    57  -2.0318309306157200E-03
    58   1.8968642315863029E-04
    59  -1.3406933988694527E-03
    60  -1.1287720751413247E-03
    61  -1.4795596329565272E-01
    62   1.9007698152420413E-02
    63   6.4360004414914768E-02
    64  -3.4869124436735399E-02
    65  -1.1178283853166533E-03
    66   4.4327114311130657E-04
    67  -2.2659685077025989E-03
    68   5.7862872580333809E-04
Sym=     2a
Ene=  -0.84315926705030675     
Spin= Alpha
Occup=     2.00000000
     1   4.8781478307980243E-03
     2  -3.5293294680177447E-03
     3   4.3457484032924133E-03
     4  -4.2692636187114628E-03
     5   1.1537154196690717E-03
     6  -1.8752696050531900E-03
     7  -1.2059206851850639E-03
     8  -8.8380406954864145E-04
     9   1.0990167932659826E-03
    10   2.3826542478860729E-03
    11  -3.0750248140921504E-02
    12  -6.7664543089384674E-02
    13  -4.0015573473360100E-02
    14   2.3396500570124247E-02
    15   1.5116933912588126E-02
    16  -4.0562874443371769E-03
    17  -1.1060646468250949E-02
    18   3.7542099853621592E-02
    19  -2.6163331230527012E-02
    20  -1.1685617884206341E-02
    21   4.9058176027236061E-03
    22  -2.2830658356594821E-03
    23   1.9612396269415321E-03
    24   5.0810025825442423E-03
    25  -9.2787066541481326E-03
    26  -1.0090582727154465E-03
    27   1.9368416329905963E-03
    28  -1.6278962235367178E-03
    29  -2.4433328838028676E-03
    30   1.6152486328858385E-03
    31   8.2808425091702900E-04
    32   3.3269236062964534E-03
    33  -3.8578522539262053E-03
    34  -8.7951431057535077E-07
    35  -3.6418899722343596E-03
    36  -5.5839054398724270E-04
    37  -4.1879005057779287E-04
    38   6.8898881532484843E-05
    39   2.4238248987318791E-03
    40   5.5041919667903917E-04
    41   9.2908260025878187E-01
    42  -5.1413765310669973E-03
    43   1.7512650729579911E-03
    44   6.0458699255460761E-03
    45   2.1554376255288003E-03
    46   7.1709568921959335E-05
    47  -2.2271471944507598E-03
    48  -1.9630645287473376E-03
    49   1.1180026900249464E-02
    50  -1.4789294163619415E-02
    51   5.5162134652367474E-03
    52  -3.2864764548032692E-03
    53   2.3347161980743539E-03
    54  -4.2755344608519531E-03
    55   7.7057243679201821E-04
    56  -4.1646210741023721E-04
    57   3.9292296249613771E-03
    58  -2.4801828350446179E-04
    59   4.3322395648378979E-04
    60   1.9437367722950983E-03
    61   1.1682911843822075E-03
    62  -1.1075411805542639E-03
    63   2.0451721522636041E-03
    64  -1.4159885629877295E-03
    65   4.3073050292958479E-02
    66  -2.0534930622164993E-02
    67   4.1027159163306064E-02
    68   5.4975341004173346E-02
Sym=     3a
Ene=  -0.79084657014985849     
Spin= Alpha
Occup=     2.00000000
     1   1.3774002890699411E-01
     2  -7.7836425415275974E-03
     3   9.4854771979935356E-03
     4  -2.2944035582684168E-04
     5   8.9287735158185893E-04
     6   1.7544517498279354E-03
     7   4.5498387595054091E-02
     8   7.5356359177957358E-03
     9  -1.4157626634085201E-03
    10   3.9502555327004668E-03
    11  -4.4004008271804916E-02
    12   4.2524772686770157E-02
    13  -2.0011882117444122E-02
    14   1.3890284678522102E-02
    15   2.3372370437525016E-02
    16  -8.7091898318016371E-03
    17  -1.4663180605723381E-02
    18  -2.2710255670236448E-02
    19  -3.7741963631879351E-02
    20   1.6913113977598575E-02
    21   2.0054004129585615E-03
    22  -2.7909190030723477E-05
    23   1.2054691709542324E-03
    24   6.9985757819752991E-04
    25  -1.5992545223607910E-01
    26   1.7432663586554726E-02
    27   7.0177966040239362E-02
    28  -3.7251707105786562E-02
    29   3.4873388057075783E-03
    30  -2.8909692056224342E-03
    31  -5.9636960008514436E-04
    32  -1.0426593151375644E-02
    33   7.8042418578929667E-03
    34   5.6496892783032245E-03
    35   6.6885507385379706E-01
    36  -1.0579181715960846E-02
    37   2.4988290644191971E-03
    38   1.2828104374106785E-03
    39   8.6241189001994359E-04
    40  -7.9680326617641924E-04
    41   1.5610346160855142E-02
    42   4.7195920458396427E-03
    43   1.4586938718988375E-04
    44  -2.2366435495582379E-03
    45  -3.4165955922811078E-04
    46   3.3153297295506780E-04
    47   1.0126586273042967E-05
    48   7.7207635114377397E-03
    49  -3.6468763259727261E-03
    50  -6.7901045085299871E-03
    51   1.1961177942930577E-01
    52   7.0520545226280375E-03
    53   1.3905801327089193E-01
    54   2.0992713291862242E-02
    55  -2.8922126559331428E-02
    56   6.2794953683519734E-03
    57   1.8545617223530806E-03
    58  -4.1128883277746107E-03
    59   3.7195450293337809E-03
    60   1.8737304542738122E-03
    61   4.6298695939609885E-01
    62   2.6640765139861699E-02
    63   2.3314255468440029E-02
    64  -1.2954995010199635E-02
    65   7.2912900238552196E-03
    66   5.4492176016512320E-04
    67   4.8940271348626805E-03
    68   1.9821959223734155E-03
Sym=     4a
Ene=  -0.78044297677011598     
Spin= Alpha
Occup=     2.00000000
     1   9.8287323003425589E-02
     2   2.5107713696475690E-02
     3  -5.1731206793512279E-03
     4  -2.0836812702886526E-03
     5  -6.8858021648727271E-04
     6  -2.3510528299661515E-03
     7  -4.2891436919134072E-02
     8  -7.8936168762509737E-03
     9   2.5122133896076479E-03
    10   1.3102482819559700E-03
    11  -1.3922026585730274E-02
    12   2.7288352273146882E-02
    13  -1.4143575128836069E-02
    14   3.8653452540007655E-02
    15  -2.4394742373341459E-02
    16   1.1263992198248829E-02
    17   1.3130750175092628E-02
    18   3.5494225101564233E-02
    19   1.1928778059890597E-02
    20   4.0575836956686885E-04
    21  -1.7476103539555599E-03
    22  -8.9867167236420010E-05
    23  -5.2554712289330362E-04
    24  -6.8743021572418265E-05
    25  -1.9249626713627563E-01
    26   2.5960032700198133E-02
    27   9.3639642952373009E-02
    28  -4.9004283398886662E-02
    29   3.3083631623208412E-03
    30  -5.2090482924070916E-03
    31   1.9006851300862506E-03
    32  -6.0055633018998274E-03
    33   1.9312689167171053E-03
    34   9.4530823802507465E-04
    35  -5.8761446953946894E-01
    36   6.6930460113643966E-03
    37  -1.5810762694601921E-03
    38   8.9766721497390751E-03
    39  -9.4615755614079421E-04
    40   7.2035860989945780E-04
    41   4.1246749929939293E-03
    42  -3.3842883943253308E-04
    43   4.3443921941070203E-03
    44  -8.1988405432022551E-04
    45  -4.1531826360061983E-03
    46   4.0233064394773017E-03
    47   1.2987619652889598E-04
    48   2.1981234201887364E-03
    49  -5.4087927859458717E-03
    50  -5.9439071329968549E-03
    51   1.6040632660795695E-01
    52   1.1782961758670805E-02
    53  -1.3035483778205950E-01
    54  -6.0070721296468163E-03
    55  -3.4472838966934129E-02
    56   7.1871001754282172E-03
    57  -7.7770653665430885E-04
    58   1.7587978912754641E-03
    59  -4.1031979058548328E-04
    60   8.5560142142085741E-05
    61   5.7229628329999582E-01
    62   2.2135887652617290E-02
    63   3.4157502418689506E-02
    64   4.7606078477994010E-03
    65  -2.0096810458113748E-03
    66  -1.1334427216071687E-03
    67   2.9635054322412224E-03
    68  -7.9442983326326102E-05
Sym=     5a
Ene=  -0.71910761606595530     
Spin= Alpha
Occup=     2.00000000
     1   2.7050966080068438E-03
     2   9.0157248577255895E-03
     3   2.1142097484108702E-01
     4   1.3975714960018447E-02
     5   1.3636401658821896E-02
     6   1.3821141052826075E-02
     7   7.4036005466425148E-01
     8   5.2874676486813054E-03
     9   1.9846067778911573E-02
    10  -2.5209725945759261E-02
    11  -1.3810516749078698E-02
    12   3.0510220873790943E-02
    13  -3.0504860596454894E-02
    14  -1.0018934605462126E-01
    15  -1.1824203884106380E-02
    16   2.9242649197144723E-04
    17   1.1531777392134934E-02
    18   9.0818905677291836E-03
    19   1.0311296650739774E-03
    20   1.3523768740933341E-02
    21   6.8799441232940623E-03
    22   8.4583106397122503E-03
    23   1.3289798930536525E-02
    24  -1.0982536913862377E-03
    25   1.9201549030144279E-03
    26   2.2750819026647220E-03
    27   3.8799509165744327E-03
    28  -3.5695439765875106E-03
    29  -2.0453514681209313E-04
    30   2.0716497416854319E-03
    31  -1.8671145948733385E-03
    32  -2.5749550916647273E-03
    33   7.4535345300183649E-04
    34  -2.6424041042786214E-03
    35  -1.4067348374183222E-01
    36  -1.7094532126234935E-02
    37   4.9368116660171244E-03
    38  -4.7401025091230210E-03
    39   7.9942846411401364E-04
    40   3.9296397585794739E-03
    41   2.7413463060855257E-02
    42   2.2820020584268744E-03
    43   5.9656963122718719E-04
    44  -2.9570978710025944E-03
    45   1.9840449066362725E-03
    46   5.0546888741749545E-03
    47  -7.0387337808112274E-03
    48   1.1497080543165164E-02
    49   1.1718541083781609E-02
    50   1.0488987576547574E-03
    51   7.2882055624574728E-03
    52  -2.9880608019088248E-03
    53   2.9914153365728897E-02
    54   7.6592551251624934E-03
    55   1.6827408428783381E-03
    56  -1.4623665207212039E-03
    57   8.9715860176850626E-02
    58   3.4783262934205986E-02
    59   7.1008632016545198E-02
    60   5.1485651922545290E-02
    61   1.7403266343413042E-02
    62   1.8623057094004092E-03
    63  -1.3923533924805058E-03
    64  -4.2390653611359286E-03
    65   9.9341977852040898E-03
    66   2.6803977315462083E-03
    67   7.8895873550127830E-03
    68   3.2394796749791528E-03
Sym=     6a
Ene=  -0.59096959706500085     
Spin= Alpha
Occup=     2.00000000
     1  -3.4336790306183201E-01
     2  -3.2457959394538632E-02
     3   3.1245726307668555E-02
     4  -1.4264710270644626E-03
     5   1.2151387566072987E-03
     6  -1.0692898527990518E-03
     7   2.2963906975887710E-02
     8   3.8239910988839020E-03
     9   1.8614045804701218E-02
    10  -3.3137089690438791E-02
    11  -1.1619295002117214E-02
    12  -1.9000854621365405E-02
    13   3.4321398447509428E-02
    14   2.7949411578468270E-02
    15  -4.9926892159895021E-03
    16  -1.7986198128000307E-02
    17   2.2978887343989809E-02
    18   1.5970742901466439E-02
    19   1.9090643933742282E-03
    20   5.6336480332979755E-04
    21  -4.5954190425062963E-02
    22   2.7054161094966791E-03
    23  -5.0244724261562937E-03
    24  -8.5150766946958979E-03
    25   2.3148018495882834E-02
    26  -7.2822810073460587E-02
    27   8.5881594611272330E-02
    28   1.5241186437435714E-01
    29   1.1782032102771040E-03
    30   7.0682611861739458E-04
    31  -1.8850293288944985E-03
    32  -2.2146502401811392E-03
    33   4.4216783759443278E-03
    34   4.0618273590750610E-03
    35   8.5844479861541242E-02
    36   6.3066452195607109E-02
    37  -6.7749024471996031E-03
    38  -1.3360023299401580E-01
    39  -1.5055435028393649E-02
    40  -1.8625706782929945E-03
    41   5.6664466089912033E-03
    42  -4.6350728325186040E-03
    43   1.1848835843270743E-02
    44   1.6609746582677810E-02
    45   1.6795085358450343E-03
    46  -2.0606824061956026E-03
    47   3.8117387035056826E-04
    48  -5.4193511003800083E-03
    49  -5.8246117914890561E-03
    50  -3.2727494167949759E-05
    51   3.6002441799285012E-01
    52   2.4317709205470633E-02
    53   9.3152630797325095E-03
    54   1.7376580214424546E-03
    55  -3.4808692503786175E-02
    56  -2.7537905578479101E-03
    57  -8.6904416701874300E-03
    58   9.9117738584334810E-03
    59   1.3341887716373827E-02
    60  -4.8066610225546138E-03
    61  -2.5396938238240008E-02
    62  -1.4394419539709682E-01
    63   3.1125798422631312E-01
    64   4.9230986856782838E-01
    65  -4.3071908059127341E-02
    66  -7.3343172646165118E-03
    67   2.0658234974487506E-03
    68   8.6857570164975088E-03
Sym=     7a
Ene=  -0.58353295976841757     
Spin= Alpha
Occup=     2.00000000
     1  -5.3085596204031894E-02
     2  -6.4588467533584059E-03
     3  -8.5263860611703921E-02
     4  -2.3632348455470218E-03
     5   5.2786090829649614E-02
     6   9.0136141603526163E-03
     7  -3.7184774672506096E-02
     8  -6.3679648573180911E-02
     9  -1.1148405672173298E-01
    10   9.6510493633685315E-03
    11  -1.0285436324884704E-02
    12  -1.6141116354550931E-02
    13  -4.1765117864830552E-02
    14  -6.0889108136317951E-03
    15  -1.3846816225814101E-02
    16   1.2402277050962644E-02
    17   1.4445391748514561E-03
    18   4.0403354761348520E-03
    19   1.9573057069746064E-02
    20   2.6487510400687524E-02
    21   4.7207544982412869E-01
    22  -1.6155381016610768E-02
    23   4.9772249254541823E-02
    24   4.1291663309823895E-02
    25   7.7090374513919206E-03
    26  -5.5336622306344577E-02
    27   5.2712514646571153E-02
    28  -2.2599165372779010E-02
    29   6.6428358101828816E-04
    30   1.7716755155021070E-03
    31  -2.4359590965203951E-03
    32   1.1395326976090900E-04
    33  -1.1116319204300001E-03
    34  -1.9742359691320879E-03
    35   2.9107654400841045E-02
    36   2.3020011883720243E-02
    37  -1.1650575231091725E-02
    38  -1.6997446670138014E-02
    39   1.7071650196182692E-01
    40   1.1749932051722778E-02
    41  -4.9896132395064421E-02
    42   4.4150560745606443E-02
    43  -5.4088197551466335E-02
    44  -8.5610884726746522E-02
    45  -2.1386902832998696E-03
    46   5.8909968841020215E-03
    47  -3.7523066008021523E-03
    48   2.5013195698923201E-03
    49   1.1797969550007569E-02
    50  -1.5840680197308651E-03
    51   2.0298896775517696E-02
    52   9.8699092491269090E-05
    53  -9.7122980578481042E-03
    54   2.6066600067083620E-03
    55  -5.3317774234922545E-02
    56  -2.7922040276583421E-03
    57   2.2150883730564672E-01
    58  -6.3154370236303686E-02
    59  -6.9609351378321027E-02
    60   5.4584923277331075E-02
    61   9.5569736241955527E-03
    62  -6.3494854436860690E-02
    63  -3.7553794030399917E-03
    64   6.0276336619406574E-02
    65   3.3145576881347799E-01
    66   6.1811007956298000E-02
    67  -3.7856117495060265E-02
    68  -1.1354455259898516E-01
Sym=     8a
Ene=  -0.57776633894826412     
Spin= Alpha
Occup=     2.00000000
     1  -1.1716015925691214E-01
     2  -1.1064360076458828E-02
     3  -1.4636112279055641E-03
     4   5.0024302395282783E-04
     5  -1.1174593949607695E-02
     6  -9.7179252410066594E-04
     7   7.5528152662890603E-03
     8   9.3123110042675396E-03
     9   4.3028393991836273E-03
    10   1.3833635782154770E-02
    11   8.8901991108969583E-02
    12   1.0928561724828570E-02
    13  -4.4924868478966831E-02
    14   3.5100147665680641E-02
    15  -2.2400103525928004E-02
    16   1.3351333283263597E-02
    17   9.0487702426644088E-03
    18  -2.2843056459700299E-02
    19  -6.8629993761578608E-03
    20  -4.2574333253176534E-02
    21  -7.3819298354512772E-02
    22   4.8177676792375401E-03
    23  -5.1988482291289093E-03
    24  -1.1907728611739552E-03
    25   6.3442485550473313E-02
    26  -3.6769270177637753E-01
    27   2.8948309441283260E-01
    28  -2.4212899387236492E-01
    29   3.3712020482275793E-04
    30   5.2745969528412307E-03
    31  -5.6117171576639891E-03
    32   9.6623338081196252E-04
    33   5.5586917988835851E-04
    34  -1.9736092035415449E-02
    35   1.5712916954647164E-02
    36   1.5868349439862259E-03
    37  -5.0681652854550731E-03
    38  -5.9172894735018550E-02
    39  -3.0459014087304198E-02
    40  -1.5360593910854414E-03
    41  -2.0476740190190391E-02
    42   4.1097692878561617E-02